+ 0 1 2 tcp 40 ------- 0 1.0 6.0 0 0
- 0 1 2 tcp 40 ------- 0 1.0 6.0 0 0
+ 0 1 2 tcp 1040 ------- 0 1.0 6.0 1 1
- 0.00032 1 2 tcp 1040 ------- 0 1.0 6.0 1 1
r 0.00232 1 2 tcp 40 ------- 0 1.0 6.0 0 0
+ 0.00232 2 3 tcp 40 ------- 0 1.0 6.0 0 0
- 0.00232 2 3 tcp 40 ------- 0 1.0 6.0 0 0
r 0.004777 2 3 tcp 40 ------- 0 1.0 6.0 0 0
+ 0.004777 3 5 tcp 40 ------- 0 1.0 6.0 0 0
- 0.004777 3 5 tcp 40 ------- 0 1.0 6.0 0 0
r 0.007234 3 5 tcp 40 ------- 0 1.0 6.0 0 0
+ 0.007234 5 6 tcp 40 ------- 0 1.0 6.0 0 0
- 0.007234 5 6 tcp 40 ------- 0 1.0 6.0 0 0
r 0.009554 5 6 tcp 40 ------- 0 1.0 6.0 0 0
+ 0.009554 6 5 ack 40 ------- 0 6.0 1.0 0 2
- 0.009554 6 5 ack 40 ------- 0 6.0 1.0 0 2
r 0.01064 1 2 tcp 1040 ------- 0 1.0 6.0 1 1
+ 0.01064 2 3 tcp 1040 ------- 0 1.0 6.0 1 1
- 0.01064 2 3 tcp 1040 ------- 0 1.0 6.0 1 1
r 0.011874 6 5 ack 40 ------- 0 6.0 1.0 0 2
+ 0.011874 5 3 ack 40 ------- 0 6.0 1.0 0 2
- 0.011874 5 3 ack 40 ------- 0 6.0 1.0 0 2
r 0.014331 5 3 ack 40 ------- 0 6.0 1.0 0 2
+ 0.014331 3 2 ack 40 ------- 0 6.0 1.0 0 2
- 0.014331 3 2 ack 40 ------- 0 6.0 1.0 0 2
r 0.016789 3 2 ack 40 ------- 0 6.0 1.0 0 2
+ 0.016789 2 1 ack 40 ------- 0 6.0 1.0 0 2
- 0.016789 2 1 ack 40 ------- 0 6.0 1.0 0 2
r 0.019109 2 1 ack 40 ------- 0 6.0 1.0 0 2
+ 0.019109 1 2 tcp 1040 ------- 0 1.0 6.0 2 3
- 0.019109 1 2 tcp 1040 ------- 0 1.0 6.0 2 3
+ 0.019109 1 2 tcp 1040 ------- 0 1.0 6.0 3 4
r 0.024526 2 3 tcp 1040 ------- 0 1.0 6.0 1 1
+ 0.024526 3 5 tcp 1040 ------- 0 1.0 6.0 1 1
- 0.024526 3 5 tcp 1040 ------- 0 1.0 6.0 1 1
- 0.027429 1 2 tcp 1040 ------- 0 1.0 6.0 3 4
r 0.029429 1 2 tcp 1040 ------- 0 1.0 6.0 2 3
+ 0.029429 2 3 tcp 1040 ------- 0 1.0 6.0 2 3
- 0.029429 2 3 tcp 1040 ------- 0 1.0 6.0 2 3
r 0.037749 1 2 tcp 1040 ------- 0 1.0 6.0 3 4
+ 0.037749 2 3 tcp 1040 ------- 0 1.0 6.0 3 4
r 0.038411 3 5 tcp 1040 ------- 0 1.0 6.0 1 1
+ 0.038411 5 6 tcp 1040 ------- 0 1.0 6.0 1 1
- 0.038411 5 6 tcp 1040 ------- 0 1.0 6.0 1 1
- 0.041314 2 3 tcp 1040 ------- 0 1.0 6.0 3 4
r 0.043314 2 3 tcp 1040 ------- 0 1.0 6.0 2 3
+ 0.043314 3 5 tcp 1040 ------- 0 1.0 6.0 2 3
- 0.043314 3 5 tcp 1040 ------- 0 1.0 6.0 2 3
r 0.048731 5 6 tcp 1040 ------- 0 1.0 6.0 1 1
+ 0.048731 6 5 ack 40 ------- 0 6.0 1.0 1 5
- 0.048731 6 5 ack 40 ------- 0 6.0 1.0 1 5
r 0.051051 6 5 ack 40 ------- 0 6.0 1.0 1 5
+ 0.051051 5 3 ack 40 ------- 0 6.0 1.0 1 5
- 0.051051 5 3 ack 40 ------- 0 6.0 1.0 1 5
r 0.053509 5 3 ack 40 ------- 0 6.0 1.0 1 5
+ 0.053509 3 2 ack 40 ------- 0 6.0 1.0 1 5
- 0.053509 3 2 ack 40 ------- 0 6.0 1.0 1 5
r 0.0552 2 3 tcp 1040 ------- 0 1.0 6.0 3 4
+ 0.0552 3 5 tcp 1040 ------- 0 1.0 6.0 3 4
- 0.0552 3 5 tcp 1040 ------- 0 1.0 6.0 3 4
r 0.055966 3 2 ack 40 ------- 0 6.0 1.0 1 5
+ 0.055966 2 1 ack 40 ------- 0 6.0 1.0 1 5
- 0.055966 2 1 ack 40 ------- 0 6.0 1.0 1 5
r 0.0572 3 5 tcp 1040 ------- 0 1.0 6.0 2 3
+ 0.0572 5 6 tcp 1040 ------- 0 1.0 6.0 2 3
- 0.0572 5 6 tcp 1040 ------- 0 1.0 6.0 2 3
r 0.058286 2 1 ack 40 ------- 0 6.0 1.0 1 5
+ 0.058286 1 2 tcp 1040 ------- 0 1.0 6.0 4 6
- 0.058286 1 2 tcp 1040 ------- 0 1.0 6.0 4 6
+ 0.058286 1 2 tcp 1040 ------- 0 1.0 6.0 5 7
- 0.066606 1 2 tcp 1040 ------- 0 1.0 6.0 5 7
r 0.06752 5 6 tcp 1040 ------- 0 1.0 6.0 2 3
+ 0.06752 6 5 ack 40 ------- 0 6.0 1.0 2 8
- 0.06752 6 5 ack 40 ------- 0 6.0 1.0 2 8
r 0.068606 1 2 tcp 1040 ------- 0 1.0 6.0 4 6
+ 0.068606 2 3 tcp 1040 ------- 0 1.0 6.0 4 6
- 0.068606 2 3 tcp 1040 ------- 0 1.0 6.0 4 6
r 0.069086 3 5 tcp 1040 ------- 0 1.0 6.0 3 4
+ 0.069086 5 6 tcp 1040 ------- 0 1.0 6.0 3 4
- 0.069086 5 6 tcp 1040 ------- 0 1.0 6.0 3 4
r 0.06984 6 5 ack 40 ------- 0 6.0 1.0 2 8
+ 0.06984 5 3 ack 40 ------- 0 6.0 1.0 2 8
- 0.06984 5 3 ack 40 ------- 0 6.0 1.0 2 8
r 0.072297 5 3 ack 40 ------- 0 6.0 1.0 2 8
+ 0.072297 3 2 ack 40 ------- 0 6.0 1.0 2 8
- 0.072297 3 2 ack 40 ------- 0 6.0 1.0 2 8
r 0.074754 3 2 ack 40 ------- 0 6.0 1.0 2 8
+ 0.074754 2 1 ack 40 ------- 0 6.0 1.0 2 8
- 0.074754 2 1 ack 40 ------- 0 6.0 1.0 2 8
r 0.076926 1 2 tcp 1040 ------- 0 1.0 6.0 5 7
+ 0.076926 2 3 tcp 1040 ------- 0 1.0 6.0 5 7
r 0.077074 2 1 ack 40 ------- 0 6.0 1.0 2 8
+ 0.077074 1 2 tcp 1040 ------- 0 1.0 6.0 6 9
- 0.077074 1 2 tcp 1040 ------- 0 1.0 6.0 6 9
+ 0.077074 1 2 tcp 1040 ------- 0 1.0 6.0 7 10
r 0.079406 5 6 tcp 1040 ------- 0 1.0 6.0 3 4
+ 0.079406 6 5 ack 40 ------- 0 6.0 1.0 3 11
- 0.079406 6 5 ack 40 ------- 0 6.0 1.0 3 11
- 0.080491 2 3 tcp 1040 ------- 0 1.0 6.0 5 7
r 0.081726 6 5 ack 40 ------- 0 6.0 1.0 3 11
+ 0.081726 5 3 ack 40 ------- 0 6.0 1.0 3 11
- 0.081726 5 3 ack 40 ------- 0 6.0 1.0 3 11
r 0.082491 2 3 tcp 1040 ------- 0 1.0 6.0 4 6
+ 0.082491 3 5 tcp 1040 ------- 0 1.0 6.0 4 6
- 0.082491 3 5 tcp 1040 ------- 0 1.0 6.0 4 6
r 0.084183 5 3 ack 40 ------- 0 6.0 1.0 3 11
+ 0.084183 3 2 ack 40 ------- 0 6.0 1.0 3 11
- 0.084183 3 2 ack 40 ------- 0 6.0 1.0 3 11
- 0.085394 1 2 tcp 1040 ------- 0 1.0 6.0 7 10
r 0.08664 3 2 ack 40 ------- 0 6.0 1.0 3 11
+ 0.08664 2 1 ack 40 ------- 0 6.0 1.0 3 11
- 0.08664 2 1 ack 40 ------- 0 6.0 1.0 3 11
r 0.087394 1 2 tcp 1040 ------- 0 1.0 6.0 6 9
+ 0.087394 2 3 tcp 1040 ------- 0 1.0 6.0 6 9
r 0.08896 2 1 ack 40 ------- 0 6.0 1.0 3 11
+ 0.08896 1 2 tcp 1040 ------- 0 1.0 6.0 8 12
+ 0.08896 1 2 tcp 1040 ------- 0 1.0 6.0 9 13
- 0.092377 2 3 tcp 1040 ------- 0 1.0 6.0 6 9
- 0.093714 1 2 tcp 1040 ------- 0 1.0 6.0 8 12
r 0.094377 2 3 tcp 1040 ------- 0 1.0 6.0 5 7
+ 0.094377 3 5 tcp 1040 ------- 0 1.0 6.0 5 7
- 0.094377 3 5 tcp 1040 ------- 0 1.0 6.0 5 7
r 0.095714 1 2 tcp 1040 ------- 0 1.0 6.0 7 10
+ 0.095714 2 3 tcp 1040 ------- 0 1.0 6.0 7 10
r 0.096377 3 5 tcp 1040 ------- 0 1.0 6.0 4 6
+ 0.096377 5 6 tcp 1040 ------- 0 1.0 6.0 4 6
- 0.096377 5 6 tcp 1040 ------- 0 1.0 6.0 4 6
- 0.102034 1 2 tcp 1040 ------- 0 1.0 6.0 9 13
r 0.104034 1 2 tcp 1040 ------- 0 1.0 6.0 8 12
+ 0.104034 2 3 tcp 1040 ------- 0 1.0 6.0 8 12
- 0.104263 2 3 tcp 1040 ------- 0 1.0 6.0 7 10
r 0.106263 2 3 tcp 1040 ------- 0 1.0 6.0 6 9
+ 0.106263 3 5 tcp 1040 ------- 0 1.0 6.0 6 9
- 0.106263 3 5 tcp 1040 ------- 0 1.0 6.0 6 9
r 0.106697 5 6 tcp 1040 ------- 0 1.0 6.0 4 6
+ 0.106697 6 5 ack 40 ------- 0 6.0 1.0 4 14
- 0.106697 6 5 ack 40 ------- 0 6.0 1.0 4 14
r 0.108263 3 5 tcp 1040 ------- 0 1.0 6.0 5 7
+ 0.108263 5 6 tcp 1040 ------- 0 1.0 6.0 5 7
- 0.108263 5 6 tcp 1040 ------- 0 1.0 6.0 5 7
r 0.109017 6 5 ack 40 ------- 0 6.0 1.0 4 14
+ 0.109017 5 3 ack 40 ------- 0 6.0 1.0 4 14
- 0.109017 5 3 ack 40 ------- 0 6.0 1.0 4 14
r 0.111474 5 3 ack 40 ------- 0 6.0 1.0 4 14
+ 0.111474 3 2 ack 40 ------- 0 6.0 1.0 4 14
- 0.111474 3 2 ack 40 ------- 0 6.0 1.0 4 14
r 0.112354 1 2 tcp 1040 ------- 0 1.0 6.0 9 13
+ 0.112354 2 3 tcp 1040 ------- 0 1.0 6.0 9 13
r 0.113931 3 2 ack 40 ------- 0 6.0 1.0 4 14
+ 0.113931 2 1 ack 40 ------- 0 6.0 1.0 4 14
- 0.113931 2 1 ack 40 ------- 0 6.0 1.0 4 14
- 0.116149 2 3 tcp 1040 ------- 0 1.0 6.0 8 12
r 0.116251 2 1 ack 40 ------- 0 6.0 1.0 4 14
+ 0.116251 1 2 tcp 1040 ------- 0 1.0 6.0 10 15
- 0.116251 1 2 tcp 1040 ------- 0 1.0 6.0 10 15
+ 0.116251 1 2 tcp 1040 ------- 0 1.0 6.0 11 16
r 0.118149 2 3 tcp 1040 ------- 0 1.0 6.0 7 10
+ 0.118149 3 5 tcp 1040 ------- 0 1.0 6.0 7 10
- 0.118149 3 5 tcp 1040 ------- 0 1.0 6.0 7 10
r 0.118583 5 6 tcp 1040 ------- 0 1.0 6.0 5 7
+ 0.118583 6 5 ack 40 ------- 0 6.0 1.0 5 17
- 0.118583 6 5 ack 40 ------- 0 6.0 1.0 5 17
r 0.120149 3 5 tcp 1040 ------- 0 1.0 6.0 6 9
+ 0.120149 5 6 tcp 1040 ------- 0 1.0 6.0 6 9
- 0.120149 5 6 tcp 1040 ------- 0 1.0 6.0 6 9
r 0.120903 6 5 ack 40 ------- 0 6.0 1.0 5 17
+ 0.120903 5 3 ack 40 ------- 0 6.0 1.0 5 17
- 0.120903 5 3 ack 40 ------- 0 6.0 1.0 5 17
r 0.12336 5 3 ack 40 ------- 0 6.0 1.0 5 17
+ 0.12336 3 2 ack 40 ------- 0 6.0 1.0 5 17
- 0.12336 3 2 ack 40 ------- 0 6.0 1.0 5 17
- 0.124571 1 2 tcp 1040 ------- 0 1.0 6.0 11 16
r 0.125817 3 2 ack 40 ------- 0 6.0 1.0 5 17
+ 0.125817 2 1 ack 40 ------- 0 6.0 1.0 5 17
- 0.125817 2 1 ack 40 ------- 0 6.0 1.0 5 17
r 0.126571 1 2 tcp 1040 ------- 0 1.0 6.0 10 15
+ 0.126571 2 3 tcp 1040 ------- 0 1.0 6.0 10 15
- 0.128034 2 3 tcp 1040 ------- 0 1.0 6.0 9 13
r 0.128137 2 1 ack 40 ------- 0 6.0 1.0 5 17
+ 0.128137 1 2 tcp 1040 ------- 0 1.0 6.0 12 18
+ 0.128137 1 2 tcp 1040 ------- 0 1.0 6.0 13 19
r 0.130034 2 3 tcp 1040 ------- 0 1.0 6.0 8 12
+ 0.130034 3 5 tcp 1040 ------- 0 1.0 6.0 8 12
- 0.130034 3 5 tcp 1040 ------- 0 1.0 6.0 8 12
r 0.130469 5 6 tcp 1040 ------- 0 1.0 6.0 6 9
+ 0.130469 6 5 ack 40 ------- 0 6.0 1.0 6 20
- 0.130469 6 5 ack 40 ------- 0 6.0 1.0 6 20
r 0.132034 3 5 tcp 1040 ------- 0 1.0 6.0 7 10
+ 0.132034 5 6 tcp 1040 ------- 0 1.0 6.0 7 10
- 0.132034 5 6 tcp 1040 ------- 0 1.0 6.0 7 10
r 0.132789 6 5 ack 40 ------- 0 6.0 1.0 6 20
+ 0.132789 5 3 ack 40 ------- 0 6.0 1.0 6 20
- 0.132789 5 3 ack 40 ------- 0 6.0 1.0 6 20
- 0.132891 1 2 tcp 1040 ------- 0 1.0 6.0 12 18
r 0.134891 1 2 tcp 1040 ------- 0 1.0 6.0 11 16
+ 0.134891 2 3 tcp 1040 ------- 0 1.0 6.0 11 16
r 0.135246 5 3 ack 40 ------- 0 6.0 1.0 6 20
+ 0.135246 3 2 ack 40 ------- 0 6.0 1.0 6 20
- 0.135246 3 2 ack 40 ------- 0 6.0 1.0 6 20
r 0.137703 3 2 ack 40 ------- 0 6.0 1.0 6 20
+ 0.137703 2 1 ack 40 ------- 0 6.0 1.0 6 20
- 0.137703 2 1 ack 40 ------- 0 6.0 1.0 6 20
- 0.13992 2 3 tcp 1040 ------- 0 1.0 6.0 10 15
r 0.140023 2 1 ack 40 ------- 0 6.0 1.0 6 20
+ 0.140023 1 2 tcp 1040 ------- 0 1.0 6.0 14 21
+ 0.140023 1 2 tcp 1040 ------- 0 1.0 6.0 15 22
- 0.141211 1 2 tcp 1040 ------- 0 1.0 6.0 13 19
r 0.14192 2 3 tcp 1040 ------- 0 1.0 6.0 9 13
+ 0.14192 3 5 tcp 1040 ------- 0 1.0 6.0 9 13
- 0.14192 3 5 tcp 1040 ------- 0 1.0 6.0 9 13
r 0.142354 5 6 tcp 1040 ------- 0 1.0 6.0 7 10
+ 0.142354 6 5 ack 40 ------- 0 6.0 1.0 7 23
- 0.142354 6 5 ack 40 ------- 0 6.0 1.0 7 23
r 0.143211 1 2 tcp 1040 ------- 0 1.0 6.0 12 18
+ 0.143211 2 3 tcp 1040 ------- 0 1.0 6.0 12 18
r 0.14392 3 5 tcp 1040 ------- 0 1.0 6.0 8 12
+ 0.14392 5 6 tcp 1040 ------- 0 1.0 6.0 8 12
- 0.14392 5 6 tcp 1040 ------- 0 1.0 6.0 8 12
r 0.144674 6 5 ack 40 ------- 0 6.0 1.0 7 23
+ 0.144674 5 3 ack 40 ------- 0 6.0 1.0 7 23
- 0.144674 5 3 ack 40 ------- 0 6.0 1.0 7 23
r 0.147131 5 3 ack 40 ------- 0 6.0 1.0 7 23
+ 0.147131 3 2 ack 40 ------- 0 6.0 1.0 7 23
- 0.147131 3 2 ack 40 ------- 0 6.0 1.0 7 23
- 0.149531 1 2 tcp 1040 ------- 0 1.0 6.0 14 21
r 0.149589 3 2 ack 40 ------- 0 6.0 1.0 7 23
+ 0.149589 2 1 ack 40 ------- 0 6.0 1.0 7 23
- 0.149589 2 1 ack 40 ------- 0 6.0 1.0 7 23
r 0.151531 1 2 tcp 1040 ------- 0 1.0 6.0 13 19
+ 0.151531 2 3 tcp 1040 ------- 0 1.0 6.0 13 19
- 0.151806 2 3 tcp 1040 ------- 0 1.0 6.0 11 16
r 0.151909 2 1 ack 40 ------- 0 6.0 1.0 7 23
+ 0.151909 1 2 tcp 1040 ------- 0 1.0 6.0 16 24
+ 0.151909 1 2 tcp 1040 ------- 0 1.0 6.0 17 25
r 0.153806 2 3 tcp 1040 ------- 0 1.0 6.0 10 15
+ 0.153806 3 5 tcp 1040 ------- 0 1.0 6.0 10 15
- 0.153806 3 5 tcp 1040 ------- 0 1.0 6.0 10 15
r 0.15424 5 6 tcp 1040 ------- 0 1.0 6.0 8 12
+ 0.15424 6 5 ack 40 ------- 0 6.0 1.0 8 26
- 0.15424 6 5 ack 40 ------- 0 6.0 1.0 8 26
r 0.155806 3 5 tcp 1040 ------- 0 1.0 6.0 9 13
+ 0.155806 5 6 tcp 1040 ------- 0 1.0 6.0 9 13
- 0.155806 5 6 tcp 1040 ------- 0 1.0 6.0 9 13
r 0.15656 6 5 ack 40 ------- 0 6.0 1.0 8 26
+ 0.15656 5 3 ack 40 ------- 0 6.0 1.0 8 26
- 0.15656 5 3 ack 40 ------- 0 6.0 1.0 8 26
- 0.157851 1 2 tcp 1040 ------- 0 1.0 6.0 15 22
r 0.159017 5 3 ack 40 ------- 0 6.0 1.0 8 26
+ 0.159017 3 2 ack 40 ------- 0 6.0 1.0 8 26
- 0.159017 3 2 ack 40 ------- 0 6.0 1.0 8 26
r 0.159851 1 2 tcp 1040 ------- 0 1.0 6.0 14 21
+ 0.159851 2 3 tcp 1040 ------- 0 1.0 6.0 14 21
r 0.161474 3 2 ack 40 ------- 0 6.0 1.0 8 26
+ 0.161474 2 1 ack 40 ------- 0 6.0 1.0 8 26
- 0.161474 2 1 ack 40 ------- 0 6.0 1.0 8 26
- 0.163691 2 3 tcp 1040 ------- 0 1.0 6.0 12 18
r 0.163794 2 1 ack 40 ------- 0 6.0 1.0 8 26
+ 0.163794 1 2 tcp 1040 ------- 0 1.0 6.0 18 27
+ 0.163794 1 2 tcp 1040 ------- 0 1.0 6.0 19 28
r 0.165691 2 3 tcp 1040 ------- 0 1.0 6.0 11 16
+ 0.165691 3 5 tcp 1040 ------- 0 1.0 6.0 11 16
- 0.165691 3 5 tcp 1040 ------- 0 1.0 6.0 11 16
r 0.166126 5 6 tcp 1040 ------- 0 1.0 6.0 9 13
+ 0.166126 6 5 ack 40 ------- 0 6.0 1.0 9 29
- 0.166126 6 5 ack 40 ------- 0 6.0 1.0 9 29
- 0.166171 1 2 tcp 1040 ------- 0 1.0 6.0 16 24
r 0.167691 3 5 tcp 1040 ------- 0 1.0 6.0 10 15
+ 0.167691 5 6 tcp 1040 ------- 0 1.0 6.0 10 15
- 0.167691 5 6 tcp 1040 ------- 0 1.0 6.0 10 15
r 0.168171 1 2 tcp 1040 ------- 0 1.0 6.0 15 22
+ 0.168171 2 3 tcp 1040 ------- 0 1.0 6.0 15 22
r 0.168446 6 5 ack 40 ------- 0 6.0 1.0 9 29
+ 0.168446 5 3 ack 40 ------- 0 6.0 1.0 9 29
- 0.168446 5 3 ack 40 ------- 0 6.0 1.0 9 29
r 0.170903 5 3 ack 40 ------- 0 6.0 1.0 9 29
+ 0.170903 3 2 ack 40 ------- 0 6.0 1.0 9 29
- 0.170903 3 2 ack 40 ------- 0 6.0 1.0 9 29
r 0.17336 3 2 ack 40 ------- 0 6.0 1.0 9 29
+ 0.17336 2 1 ack 40 ------- 0 6.0 1.0 9 29
- 0.17336 2 1 ack 40 ------- 0 6.0 1.0 9 29
- 0.174491 1 2 tcp 1040 ------- 0 1.0 6.0 17 25
- 0.175577 2 3 tcp 1040 ------- 0 1.0 6.0 13 19
r 0.17568 2 1 ack 40 ------- 0 6.0 1.0 9 29
+ 0.17568 1 2 tcp 1040 ------- 0 1.0 6.0 20 30
+ 0.17568 1 2 tcp 1040 ------- 0 1.0 6.0 21 31
r 0.176491 1 2 tcp 1040 ------- 0 1.0 6.0 16 24
+ 0.176491 2 3 tcp 1040 ------- 0 1.0 6.0 16 24
r 0.177577 2 3 tcp 1040 ------- 0 1.0 6.0 12 18
+ 0.177577 3 5 tcp 1040 ------- 0 1.0 6.0 12 18
- 0.177577 3 5 tcp 1040 ------- 0 1.0 6.0 12 18
r 0.178011 5 6 tcp 1040 ------- 0 1.0 6.0 10 15
+ 0.178011 6 5 ack 40 ------- 0 6.0 1.0 10 32
- 0.178011 6 5 ack 40 ------- 0 6.0 1.0 10 32
r 0.179577 3 5 tcp 1040 ------- 0 1.0 6.0 11 16
+ 0.179577 5 6 tcp 1040 ------- 0 1.0 6.0 11 16
- 0.179577 5 6 tcp 1040 ------- 0 1.0 6.0 11 16
r 0.180331 6 5 ack 40 ------- 0 6.0 1.0 10 32
+ 0.180331 5 3 ack 40 ------- 0 6.0 1.0 10 32
- 0.180331 5 3 ack 40 ------- 0 6.0 1.0 10 32
r 0.182789 5 3 ack 40 ------- 0 6.0 1.0 10 32
+ 0.182789 3 2 ack 40 ------- 0 6.0 1.0 10 32
- 0.182789 3 2 ack 40 ------- 0 6.0 1.0 10 32
- 0.182811 1 2 tcp 1040 ------- 0 1.0 6.0 18 27
r 0.184811 1 2 tcp 1040 ------- 0 1.0 6.0 17 25
+ 0.184811 2 3 tcp 1040 ------- 0 1.0 6.0 17 25
r 0.185246 3 2 ack 40 ------- 0 6.0 1.0 10 32
+ 0.185246 2 1 ack 40 ------- 0 6.0 1.0 10 32
- 0.185246 2 1 ack 40 ------- 0 6.0 1.0 10 32
- 0.187463 2 3 tcp 1040 ------- 0 1.0 6.0 14 21
r 0.187566 2 1 ack 40 ------- 0 6.0 1.0 10 32
+ 0.187566 1 2 tcp 1040 ------- 0 1.0 6.0 22 33
+ 0.187566 1 2 tcp 1040 ------- 0 1.0 6.0 23 34
r 0.189463 2 3 tcp 1040 ------- 0 1.0 6.0 13 19
+ 0.189463 3 5 tcp 1040 ------- 0 1.0 6.0 13 19
- 0.189463 3 5 tcp 1040 ------- 0 1.0 6.0 13 19
r 0.189897 5 6 tcp 1040 ------- 0 1.0 6.0 11 16
+ 0.189897 6 5 ack 40 ------- 0 6.0 1.0 11 35
- 0.189897 6 5 ack 40 ------- 0 6.0 1.0 11 35
- 0.191131 1 2 tcp 1040 ------- 0 1.0 6.0 19 28
r 0.191463 3 5 tcp 1040 ------- 0 1.0 6.0 12 18
+ 0.191463 5 6 tcp 1040 ------- 0 1.0 6.0 12 18
- 0.191463 5 6 tcp 1040 ------- 0 1.0 6.0 12 18
r 0.192217 6 5 ack 40 ------- 0 6.0 1.0 11 35
+ 0.192217 5 3 ack 40 ------- 0 6.0 1.0 11 35
- 0.192217 5 3 ack 40 ------- 0 6.0 1.0 11 35
r 0.193131 1 2 tcp 1040 ------- 0 1.0 6.0 18 27
+ 0.193131 2 3 tcp 1040 ------- 0 1.0 6.0 18 27
r 0.194674 5 3 ack 40 ------- 0 6.0 1.0 11 35
+ 0.194674 3 2 ack 40 ------- 0 6.0 1.0 11 35
- 0.194674 3 2 ack 40 ------- 0 6.0 1.0 11 35
r 0.197131 3 2 ack 40 ------- 0 6.0 1.0 11 35
+ 0.197131 2 1 ack 40 ------- 0 6.0 1.0 11 35
- 0.197131 2 1 ack 40 ------- 0 6.0 1.0 11 35
- 0.199349 2 3 tcp 1040 ------- 0 1.0 6.0 15 22
- 0.199451 1 2 tcp 1040 ------- 0 1.0 6.0 20 30
r 0.199451 2 1 ack 40 ------- 0 6.0 1.0 11 35
+ 0.199451 1 2 tcp 1040 ------- 0 1.0 6.0 24 36
+ 0.199451 1 2 tcp 1040 ------- 0 1.0 6.0 25 37
r 0.201349 2 3 tcp 1040 ------- 0 1.0 6.0 14 21
+ 0.201349 3 5 tcp 1040 ------- 0 1.0 6.0 14 21
- 0.201349 3 5 tcp 1040 ------- 0 1.0 6.0 14 21
r 0.201451 1 2 tcp 1040 ------- 0 1.0 6.0 19 28
+ 0.201451 2 3 tcp 1040 ------- 0 1.0 6.0 19 28
r 0.201783 5 6 tcp 1040 ------- 0 1.0 6.0 12 18
+ 0.201783 6 5 ack 40 ------- 0 6.0 1.0 12 38
- 0.201783 6 5 ack 40 ------- 0 6.0 1.0 12 38
r 0.203349 3 5 tcp 1040 ------- 0 1.0 6.0 13 19
+ 0.203349 5 6 tcp 1040 ------- 0 1.0 6.0 13 19
- 0.203349 5 6 tcp 1040 ------- 0 1.0 6.0 13 19
r 0.204103 6 5 ack 40 ------- 0 6.0 1.0 12 38
+ 0.204103 5 3 ack 40 ------- 0 6.0 1.0 12 38
- 0.204103 5 3 ack 40 ------- 0 6.0 1.0 12 38
r 0.20656 5 3 ack 40 ------- 0 6.0 1.0 12 38
+ 0.20656 3 2 ack 40 ------- 0 6.0 1.0 12 38
- 0.20656 3 2 ack 40 ------- 0 6.0 1.0 12 38
- 0.207771 1 2 tcp 1040 ------- 0 1.0 6.0 21 31
r 0.209017 3 2 ack 40 ------- 0 6.0 1.0 12 38
+ 0.209017 2 1 ack 40 ------- 0 6.0 1.0 12 38
- 0.209017 2 1 ack 40 ------- 0 6.0 1.0 12 38
r 0.209771 1 2 tcp 1040 ------- 0 1.0 6.0 20 30
+ 0.209771 2 3 tcp 1040 ------- 0 1.0 6.0 20 30
- 0.211234 2 3 tcp 1040 ------- 0 1.0 6.0 16 24
r 0.211337 2 1 ack 40 ------- 0 6.0 1.0 12 38
+ 0.211337 1 2 tcp 1040 ------- 0 1.0 6.0 26 39
+ 0.211337 1 2 tcp 1040 ------- 0 1.0 6.0 27 40
r 0.213234 2 3 tcp 1040 ------- 0 1.0 6.0 15 22
+ 0.213234 3 5 tcp 1040 ------- 0 1.0 6.0 15 22
- 0.213234 3 5 tcp 1040 ------- 0 1.0 6.0 15 22
r 0.213669 5 6 tcp 1040 ------- 0 1.0 6.0 13 19
+ 0.213669 6 5 ack 40 ------- 0 6.0 1.0 13 41
- 0.213669 6 5 ack 40 ------- 0 6.0 1.0 13 41
r 0.215234 3 5 tcp 1040 ------- 0 1.0 6.0 14 21
+ 0.215234 5 6 tcp 1040 ------- 0 1.0 6.0 14 21
- 0.215234 5 6 tcp 1040 ------- 0 1.0 6.0 14 21
r 0.215989 6 5 ack 40 ------- 0 6.0 1.0 13 41
+ 0.215989 5 3 ack 40 ------- 0 6.0 1.0 13 41
- 0.215989 5 3 ack 40 ------- 0 6.0 1.0 13 41
- 0.216091 1 2 tcp 1040 ------- 0 1.0 6.0 22 33
r 0.218091 1 2 tcp 1040 ------- 0 1.0 6.0 21 31
+ 0.218091 2 3 tcp 1040 ------- 0 1.0 6.0 21 31
r 0.218446 5 3 ack 40 ------- 0 6.0 1.0 13 41
+ 0.218446 3 2 ack 40 ------- 0 6.0 1.0 13 41
- 0.218446 3 2 ack 40 ------- 0 6.0 1.0 13 41
r 0.220903 3 2 ack 40 ------- 0 6.0 1.0 13 41
+ 0.220903 2 1 ack 40 ------- 0 6.0 1.0 13 41
- 0.220903 2 1 ack 40 ------- 0 6.0 1.0 13 41
- 0.22312 2 3 tcp 1040 ------- 0 1.0 6.0 17 25
r 0.223223 2 1 ack 40 ------- 0 6.0 1.0 13 41
+ 0.223223 1 2 tcp 1040 ------- 0 1.0 6.0 28 42
+ 0.223223 1 2 tcp 1040 ------- 0 1.0 6.0 29 43
- 0.224411 1 2 tcp 1040 ------- 0 1.0 6.0 23 34
r 0.22512 2 3 tcp 1040 ------- 0 1.0 6.0 16 24
+ 0.22512 3 5 tcp 1040 ------- 0 1.0 6.0 16 24
- 0.22512 3 5 tcp 1040 ------- 0 1.0 6.0 16 24
r 0.225554 5 6 tcp 1040 ------- 0 1.0 6.0 14 21
+ 0.225554 6 5 ack 40 ------- 0 6.0 1.0 14 44
- 0.225554 6 5 ack 40 ------- 0 6.0 1.0 14 44
r 0.226411 1 2 tcp 1040 ------- 0 1.0 6.0 22 33
+ 0.226411 2 3 tcp 1040 ------- 0 1.0 6.0 22 33
r 0.22712 3 5 tcp 1040 ------- 0 1.0 6.0 15 22
+ 0.22712 5 6 tcp 1040 ------- 0 1.0 6.0 15 22
- 0.22712 5 6 tcp 1040 ------- 0 1.0 6.0 15 22
r 0.227874 6 5 ack 40 ------- 0 6.0 1.0 14 44
+ 0.227874 5 3 ack 40 ------- 0 6.0 1.0 14 44
- 0.227874 5 3 ack 40 ------- 0 6.0 1.0 14 44
r 0.230331 5 3 ack 40 ------- 0 6.0 1.0 14 44
+ 0.230331 3 2 ack 40 ------- 0 6.0 1.0 14 44
- 0.230331 3 2 ack 40 ------- 0 6.0 1.0 14 44
- 0.232731 1 2 tcp 1040 ------- 0 1.0 6.0 24 36
r 0.232789 3 2 ack 40 ------- 0 6.0 1.0 14 44
+ 0.232789 2 1 ack 40 ------- 0 6.0 1.0 14 44
- 0.232789 2 1 ack 40 ------- 0 6.0 1.0 14 44
r 0.234731 1 2 tcp 1040 ------- 0 1.0 6.0 23 34
+ 0.234731 2 3 tcp 1040 ------- 0 1.0 6.0 23 34
- 0.235006 2 3 tcp 1040 ------- 0 1.0 6.0 18 27
r 0.235109 2 1 ack 40 ------- 0 6.0 1.0 14 44
+ 0.235109 1 2 tcp 1040 ------- 0 1.0 6.0 30 45
+ 0.235109 1 2 tcp 1040 ------- 0 1.0 6.0 31 46
r 0.237006 2 3 tcp 1040 ------- 0 1.0 6.0 17 25
+ 0.237006 3 5 tcp 1040 ------- 0 1.0 6.0 17 25
- 0.237006 3 5 tcp 1040 ------- 0 1.0 6.0 17 25
r 0.23744 5 6 tcp 1040 ------- 0 1.0 6.0 15 22
+ 0.23744 6 5 ack 40 ------- 0 6.0 1.0 15 47
- 0.23744 6 5 ack 40 ------- 0 6.0 1.0 15 47
r 0.239006 3 5 tcp 1040 ------- 0 1.0 6.0 16 24
+ 0.239006 5 6 tcp 1040 ------- 0 1.0 6.0 16 24
- 0.239006 5 6 tcp 1040 ------- 0 1.0 6.0 16 24
r 0.23976 6 5 ack 40 ------- 0 6.0 1.0 15 47
+ 0.23976 5 3 ack 40 ------- 0 6.0 1.0 15 47
- 0.23976 5 3 ack 40 ------- 0 6.0 1.0 15 47
- 0.241051 1 2 tcp 1040 ------- 0 1.0 6.0 25 37
r 0.242217 5 3 ack 40 ------- 0 6.0 1.0 15 47
+ 0.242217 3 2 ack 40 ------- 0 6.0 1.0 15 47
- 0.242217 3 2 ack 40 ------- 0 6.0 1.0 15 47
r 0.243051 1 2 tcp 1040 ------- 0 1.0 6.0 24 36
+ 0.243051 2 3 tcp 1040 ------- 0 1.0 6.0 24 36
r 0.244674 3 2 ack 40 ------- 0 6.0 1.0 15 47
+ 0.244674 2 1 ack 40 ------- 0 6.0 1.0 15 47
- 0.244674 2 1 ack 40 ------- 0 6.0 1.0 15 47
- 0.246891 2 3 tcp 1040 ------- 0 1.0 6.0 19 28
r 0.246994 2 1 ack 40 ------- 0 6.0 1.0 15 47
+ 0.246994 1 2 tcp 1040 ------- 0 1.0 6.0 32 48
+ 0.246994 1 2 tcp 1040 ------- 0 1.0 6.0 33 49
r 0.248891 2 3 tcp 1040 ------- 0 1.0 6.0 18 27
+ 0.248891 3 5 tcp 1040 ------- 0 1.0 6.0 18 27
- 0.248891 3 5 tcp 1040 ------- 0 1.0 6.0 18 27
r 0.249326 5 6 tcp 1040 ------- 0 1.0 6.0 16 24
+ 0.249326 6 5 ack 40 ------- 0 6.0 1.0 16 50
- 0.249326 6 5 ack 40 ------- 0 6.0 1.0 16 50
- 0.249371 1 2 tcp 1040 ------- 0 1.0 6.0 26 39
r 0.250891 3 5 tcp 1040 ------- 0 1.0 6.0 17 25
+ 0.250891 5 6 tcp 1040 ------- 0 1.0 6.0 17 25
- 0.250891 5 6 tcp 1040 ------- 0 1.0 6.0 17 25
r 0.251371 1 2 tcp 1040 ------- 0 1.0 6.0 25 37
+ 0.251371 2 3 tcp 1040 ------- 0 1.0 6.0 25 37
r 0.251646 6 5 ack 40 ------- 0 6.0 1.0 16 50
+ 0.251646 5 3 ack 40 ------- 0 6.0 1.0 16 50
- 0.251646 5 3 ack 40 ------- 0 6.0 1.0 16 50
r 0.254103 5 3 ack 40 ------- 0 6.0 1.0 16 50
+ 0.254103 3 2 ack 40 ------- 0 6.0 1.0 16 50
- 0.254103 3 2 ack 40 ------- 0 6.0 1.0 16 50
r 0.25656 3 2 ack 40 ------- 0 6.0 1.0 16 50
+ 0.25656 2 1 ack 40 ------- 0 6.0 1.0 16 50
- 0.25656 2 1 ack 40 ------- 0 6.0 1.0 16 50
- 0.257691 1 2 tcp 1040 ------- 0 1.0 6.0 27 40
- 0.258777 2 3 tcp 1040 ------- 0 1.0 6.0 20 30
r 0.25888 2 1 ack 40 ------- 0 6.0 1.0 16 50
+ 0.25888 1 2 tcp 1040 ------- 0 1.0 6.0 34 51
+ 0.25888 1 2 tcp 1040 ------- 0 1.0 6.0 35 52
r 0.259691 1 2 tcp 1040 ------- 0 1.0 6.0 26 39
+ 0.259691 2 3 tcp 1040 ------- 0 1.0 6.0 26 39
r 0.260777 2 3 tcp 1040 ------- 0 1.0 6.0 19 28
+ 0.260777 3 5 tcp 1040 ------- 0 1.0 6.0 19 28
- 0.260777 3 5 tcp 1040 ------- 0 1.0 6.0 19 28
r 0.261211 5 6 tcp 1040 ------- 0 1.0 6.0 17 25
+ 0.261211 6 5 ack 40 ------- 0 6.0 1.0 17 53
- 0.261211 6 5 ack 40 ------- 0 6.0 1.0 17 53
r 0.262777 3 5 tcp 1040 ------- 0 1.0 6.0 18 27
+ 0.262777 5 6 tcp 1040 ------- 0 1.0 6.0 18 27
- 0.262777 5 6 tcp 1040 ------- 0 1.0 6.0 18 27
r 0.263531 6 5 ack 40 ------- 0 6.0 1.0 17 53
+ 0.263531 5 3 ack 40 ------- 0 6.0 1.0 17 53
- 0.263531 5 3 ack 40 ------- 0 6.0 1.0 17 53
r 0.265989 5 3 ack 40 ------- 0 6.0 1.0 17 53
+ 0.265989 3 2 ack 40 ------- 0 6.0 1.0 17 53
- 0.265989 3 2 ack 40 ------- 0 6.0 1.0 17 53
- 0.266011 1 2 tcp 1040 ------- 0 1.0 6.0 28 42
r 0.268011 1 2 tcp 1040 ------- 0 1.0 6.0 27 40
+ 0.268011 2 3 tcp 1040 ------- 0 1.0 6.0 27 40
r 0.268446 3 2 ack 40 ------- 0 6.0 1.0 17 53
+ 0.268446 2 1 ack 40 ------- 0 6.0 1.0 17 53
- 0.268446 2 1 ack 40 ------- 0 6.0 1.0 17 53
- 0.270663 2 3 tcp 1040 ------- 0 1.0 6.0 21 31
r 0.270766 2 1 ack 40 ------- 0 6.0 1.0 17 53
+ 0.270766 1 2 tcp 1040 ------- 0 1.0 6.0 36 54
+ 0.270766 1 2 tcp 1040 ------- 0 1.0 6.0 37 55
r 0.272663 2 3 tcp 1040 ------- 0 1.0 6.0 20 30
+ 0.272663 3 5 tcp 1040 ------- 0 1.0 6.0 20 30
- 0.272663 3 5 tcp 1040 ------- 0 1.0 6.0 20 30
r 0.273097 5 6 tcp 1040 ------- 0 1.0 6.0 18 27
+ 0.273097 6 5 ack 40 ------- 0 6.0 1.0 18 56
- 0.273097 6 5 ack 40 ------- 0 6.0 1.0 18 56
- 0.274331 1 2 tcp 1040 ------- 0 1.0 6.0 29 43
r 0.274663 3 5 tcp 1040 ------- 0 1.0 6.0 19 28
+ 0.274663 5 6 tcp 1040 ------- 0 1.0 6.0 19 28
- 0.274663 5 6 tcp 1040 ------- 0 1.0 6.0 19 28
r 0.275417 6 5 ack 40 ------- 0 6.0 1.0 18 56
+ 0.275417 5 3 ack 40 ------- 0 6.0 1.0 18 56
- 0.275417 5 3 ack 40 ------- 0 6.0 1.0 18 56
r 0.276331 1 2 tcp 1040 ------- 0 1.0 6.0 28 42
+ 0.276331 2 3 tcp 1040 ------- 0 1.0 6.0 28 42
r 0.277874 5 3 ack 40 ------- 0 6.0 1.0 18 56
+ 0.277874 3 2 ack 40 ------- 0 6.0 1.0 18 56
- 0.277874 3 2 ack 40 ------- 0 6.0 1.0 18 56
r 0.280331 3 2 ack 40 ------- 0 6.0 1.0 18 56
+ 0.280331 2 1 ack 40 ------- 0 6.0 1.0 18 56
- 0.280331 2 1 ack 40 ------- 0 6.0 1.0 18 56
- 0.282549 2 3 tcp 1040 ------- 0 1.0 6.0 22 33
- 0.282651 1 2 tcp 1040 ------- 0 1.0 6.0 30 45
r 0.282651 2 1 ack 40 ------- 0 6.0 1.0 18 56
+ 0.282651 1 2 tcp 1040 ------- 0 1.0 6.0 38 57
r 0.284549 2 3 tcp 1040 ------- 0 1.0 6.0 21 31
+ 0.284549 3 5 tcp 1040 ------- 0 1.0 6.0 21 31
- 0.284549 3 5 tcp 1040 ------- 0 1.0 6.0 21 31
r 0.284651 1 2 tcp 1040 ------- 0 1.0 6.0 29 43
+ 0.284651 2 3 tcp 1040 ------- 0 1.0 6.0 29 43
r 0.284983 5 6 tcp 1040 ------- 0 1.0 6.0 19 28
+ 0.284983 6 5 ack 40 ------- 0 6.0 1.0 19 58
- 0.284983 6 5 ack 40 ------- 0 6.0 1.0 19 58
r 0.286549 3 5 tcp 1040 ------- 0 1.0 6.0 20 30
+ 0.286549 5 6 tcp 1040 ------- 0 1.0 6.0 20 30
- 0.286549 5 6 tcp 1040 ------- 0 1.0 6.0 20 30
r 0.287303 6 5 ack 40 ------- 0 6.0 1.0 19 58
+ 0.287303 5 3 ack 40 ------- 0 6.0 1.0 19 58
- 0.287303 5 3 ack 40 ------- 0 6.0 1.0 19 58
r 0.28976 5 3 ack 40 ------- 0 6.0 1.0 19 58
+ 0.28976 3 2 ack 40 ------- 0 6.0 1.0 19 58
- 0.28976 3 2 ack 40 ------- 0 6.0 1.0 19 58
- 0.290971 1 2 tcp 1040 ------- 0 1.0 6.0 31 46
r 0.292217 3 2 ack 40 ------- 0 6.0 1.0 19 58
+ 0.292217 2 1 ack 40 ------- 0 6.0 1.0 19 58
- 0.292217 2 1 ack 40 ------- 0 6.0 1.0 19 58
r 0.292971 1 2 tcp 1040 ------- 0 1.0 6.0 30 45
+ 0.292971 2 3 tcp 1040 ------- 0 1.0 6.0 30 45
- 0.294434 2 3 tcp 1040 ------- 0 1.0 6.0 23 34
r 0.294537 2 1 ack 40 ------- 0 6.0 1.0 19 58
+ 0.294537 1 2 tcp 1040 ------- 0 1.0 6.0 39 59
r 0.296434 2 3 tcp 1040 ------- 0 1.0 6.0 22 33
+ 0.296434 3 5 tcp 1040 ------- 0 1.0 6.0 22 33
- 0.296434 3 5 tcp 1040 ------- 0 1.0 6.0 22 33
r 0.296869 5 6 tcp 1040 ------- 0 1.0 6.0 20 30
+ 0.296869 6 5 ack 40 ------- 0 6.0 1.0 20 60
- 0.296869 6 5 ack 40 ------- 0 6.0 1.0 20 60
r 0.298434 3 5 tcp 1040 ------- 0 1.0 6.0 21 31
+ 0.298434 5 6 tcp 1040 ------- 0 1.0 6.0 21 31
- 0.298434 5 6 tcp 1040 ------- 0 1.0 6.0 21 31
r 0.299189 6 5 ack 40 ------- 0 6.0 1.0 20 60
+ 0.299189 5 3 ack 40 ------- 0 6.0 1.0 20 60
- 0.299189 5 3 ack 40 ------- 0 6.0 1.0 20 60
- 0.299291 1 2 tcp 1040 ------- 0 1.0 6.0 32 48
r 0.301291 1 2 tcp 1040 ------- 0 1.0 6.0 31 46
+ 0.301291 2 3 tcp 1040 ------- 0 1.0 6.0 31 46
r 0.301646 5 3 ack 40 ------- 0 6.0 1.0 20 60
+ 0.301646 3 2 ack 40 ------- 0 6.0 1.0 20 60
- 0.301646 3 2 ack 40 ------- 0 6.0 1.0 20 60
r 0.304103 3 2 ack 40 ------- 0 6.0 1.0 20 60
+ 0.304103 2 1 ack 40 ------- 0 6.0 1.0 20 60
- 0.304103 2 1 ack 40 ------- 0 6.0 1.0 20 60
- 0.30632 2 3 tcp 1040 ------- 0 1.0 6.0 24 36
r 0.306423 2 1 ack 40 ------- 0 6.0 1.0 20 60
+ 0.306423 1 2 tcp 1040 ------- 0 1.0 6.0 40 61
- 0.307611 1 2 tcp 1040 ------- 0 1.0 6.0 33 49
r 0.30832 2 3 tcp 1040 ------- 0 1.0 6.0 23 34
+ 0.30832 3 5 tcp 1040 ------- 0 1.0 6.0 23 34
- 0.30832 3 5 tcp 1040 ------- 0 1.0 6.0 23 34
r 0.308754 5 6 tcp 1040 ------- 0 1.0 6.0 21 31
+ 0.308754 6 5 ack 40 ------- 0 6.0 1.0 21 62
- 0.308754 6 5 ack 40 ------- 0 6.0 1.0 21 62
r 0.309611 1 2 tcp 1040 ------- 0 1.0 6.0 32 48
+ 0.309611 2 3 tcp 1040 ------- 0 1.0 6.0 32 48
r 0.31032 3 5 tcp 1040 ------- 0 1.0 6.0 22 33
+ 0.31032 5 6 tcp 1040 ------- 0 1.0 6.0 22 33
- 0.31032 5 6 tcp 1040 ------- 0 1.0 6.0 22 33
r 0.311074 6 5 ack 40 ------- 0 6.0 1.0 21 62
+ 0.311074 5 3 ack 40 ------- 0 6.0 1.0 21 62
- 0.311074 5 3 ack 40 ------- 0 6.0 1.0 21 62
r 0.313531 5 3 ack 40 ------- 0 6.0 1.0 21 62
+ 0.313531 3 2 ack 40 ------- 0 6.0 1.0 21 62
- 0.313531 3 2 ack 40 ------- 0 6.0 1.0 21 62
- 0.315931 1 2 tcp 1040 ------- 0 1.0 6.0 34 51
r 0.315989 3 2 ack 40 ------- 0 6.0 1.0 21 62
+ 0.315989 2 1 ack 40 ------- 0 6.0 1.0 21 62
- 0.315989 2 1 ack 40 ------- 0 6.0 1.0 21 62
r 0.317931 1 2 tcp 1040 ------- 0 1.0 6.0 33 49
+ 0.317931 2 3 tcp 1040 ------- 0 1.0 6.0 33 49
- 0.318206 2 3 tcp 1040 ------- 0 1.0 6.0 25 37
r 0.318309 2 1 ack 40 ------- 0 6.0 1.0 21 62
+ 0.318309 1 2 tcp 1040 ------- 0 1.0 6.0 41 63
r 0.320206 2 3 tcp 1040 ------- 0 1.0 6.0 24 36
+ 0.320206 3 5 tcp 1040 ------- 0 1.0 6.0 24 36
- 0.320206 3 5 tcp 1040 ------- 0 1.0 6.0 24 36
r 0.32064 5 6 tcp 1040 ------- 0 1.0 6.0 22 33
+ 0.32064 6 5 ack 40 ------- 0 6.0 1.0 22 64
- 0.32064 6 5 ack 40 ------- 0 6.0 1.0 22 64
r 0.322206 3 5 tcp 1040 ------- 0 1.0 6.0 23 34
+ 0.322206 5 6 tcp 1040 ------- 0 1.0 6.0 23 34
- 0.322206 5 6 tcp 1040 ------- 0 1.0 6.0 23 34
r 0.32296 6 5 ack 40 ------- 0 6.0 1.0 22 64
+ 0.32296 5 3 ack 40 ------- 0 6.0 1.0 22 64
- 0.32296 5 3 ack 40 ------- 0 6.0 1.0 22 64
- 0.324251 1 2 tcp 1040 ------- 0 1.0 6.0 35 52
r 0.325417 5 3 ack 40 ------- 0 6.0 1.0 22 64
+ 0.325417 3 2 ack 40 ------- 0 6.0 1.0 22 64
- 0.325417 3 2 ack 40 ------- 0 6.0 1.0 22 64
r 0.326251 1 2 tcp 1040 ------- 0 1.0 6.0 34 51
+ 0.326251 2 3 tcp 1040 ------- 0 1.0 6.0 34 51
r 0.327874 3 2 ack 40 ------- 0 6.0 1.0 22 64
+ 0.327874 2 1 ack 40 ------- 0 6.0 1.0 22 64
- 0.327874 2 1 ack 40 ------- 0 6.0 1.0 22 64
- 0.330091 2 3 tcp 1040 ------- 0 1.0 6.0 26 39
r 0.330194 2 1 ack 40 ------- 0 6.0 1.0 22 64
+ 0.330194 1 2 tcp 1040 ------- 0 1.0 6.0 42 65
r 0.332091 2 3 tcp 1040 ------- 0 1.0 6.0 25 37
+ 0.332091 3 5 tcp 1040 ------- 0 1.0 6.0 25 37
- 0.332091 3 5 tcp 1040 ------- 0 1.0 6.0 25 37
r 0.332526 5 6 tcp 1040 ------- 0 1.0 6.0 23 34
+ 0.332526 6 5 ack 40 ------- 0 6.0 1.0 23 66
- 0.332526 6 5 ack 40 ------- 0 6.0 1.0 23 66
- 0.332571 1 2 tcp 1040 ------- 0 1.0 6.0 36 54
r 0.334091 3 5 tcp 1040 ------- 0 1.0 6.0 24 36
+ 0.334091 5 6 tcp 1040 ------- 0 1.0 6.0 24 36
- 0.334091 5 6 tcp 1040 ------- 0 1.0 6.0 24 36
r 0.334571 1 2 tcp 1040 ------- 0 1.0 6.0 35 52
+ 0.334571 2 3 tcp 1040 ------- 0 1.0 6.0 35 52
r 0.334846 6 5 ack 40 ------- 0 6.0 1.0 23 66
+ 0.334846 5 3 ack 40 ------- 0 6.0 1.0 23 66
- 0.334846 5 3 ack 40 ------- 0 6.0 1.0 23 66
r 0.337303 5 3 ack 40 ------- 0 6.0 1.0 23 66
+ 0.337303 3 2 ack 40 ------- 0 6.0 1.0 23 66
- 0.337303 3 2 ack 40 ------- 0 6.0 1.0 23 66
r 0.33976 3 2 ack 40 ------- 0 6.0 1.0 23 66
+ 0.33976 2 1 ack 40 ------- 0 6.0 1.0 23 66
- 0.33976 2 1 ack 40 ------- 0 6.0 1.0 23 66
- 0.340891 1 2 tcp 1040 ------- 0 1.0 6.0 37 55
- 0.341977 2 3 tcp 1040 ------- 0 1.0 6.0 27 40
r 0.34208 2 1 ack 40 ------- 0 6.0 1.0 23 66
+ 0.34208 1 2 tcp 1040 ------- 0 1.0 6.0 43 67